ITEM: TIMESTEP
44600000
ITEM: NUMBER OF ATOMS
39000
ITEM: BOX BOUNDS pp pp pp
4.8751092729874699e+02 5.1248907270128598e+02
4.8751092729874699e+02 5.1248907270128598e+02
4.8751092729874699e+02 5.1248907270128598e+02
ITEM: ATOMS id type x y z
25744 2 499.746 496.939 487.803
31151 2 495.464 493.36 487.691
28354 2 491.93 493.914 487.685
28814 2 488.143 490.061 487.509
16460 2 490.215 488.298 487.835
1150 1 487.625 499.58 494.605
34018 2 490.664 488.165 487.709
25062 2 499.729 488.215 497.359
21383 2 499.514 493.022 487.689
34214 2 489.812 487.843 492.456
349 1 487.556 492.202 497.895
27477 2 492.923 488.658 488.424
32777 2 492.072 489.072 488.562
14892 2 493.547 491.504 487.645
25663 2 489.64 487.754 488.408
25418 2 493.428 488.187 488.255
10253 2 489.431 487.653 487.742
33964 2 495.04 488.039 488.224
34613 2 496.916 499.8 499.605
10560 2 499.178 489.671 499.319
31215 2 495.628 487.827 487.593
19901 2 495.577 488.096 488.283
5867 2 496.944 488.643 488.679
24882 2 487.757 489.897 489.309
17694 2 497.537 488.114 488.086
27677 2 497.906 487.531 487.716
20521 2 498.737 499.792 489.311
24845 2 496.582 487.837 494.196
1015 1 493.829 499.896 497.316
23352 2 490.023 499.715 497.755
34491 2 488.096 489.084 487.723
36353 2 489.481 488.697 488.535
28542 2 498.142 494.026 488.59
8626 2 488.833 499.585 489.15
15193 2 490.462 488.916 487.666
16397 2 488.803 488.094 488.633
31870 2 490.168 488.219 488.375
15884 2 495.889 487.651 497.88
29357 2 499.092 488.103 496.496
24690 2 499.723 489.524 495.898
15420 2 491.073 488.82 487.998
10708 2 491.55 489.735 488.127
26613 2 497.754 498.455 487.566
19514 2 492.462 488.662 488.143
19851 2 491.495 488.859 487.538
27364 2 493.615 488.574 487.959
36385 2 494.915 488.59 487.876
34428 2 493.502 489.202 488.543
19820 2 494.132 488.86 487.669
17921 2 493.672 488.464 488.742
11241 2 495.758 488.785 488.337
14556 2 499.982 489.507 498.231
36197 2 496.177 487.524 489.019
17323 2 496.272 488.149 498.13
23246 2 496.39 488.226 488.493
24890 2 498.222 488.659 488.321
8750 2 499.002 488.959 488.226
36534 2 499.556 488.483 488.28
10493 2 499.332 488.769 487.844
35346 2 495.982 487.881 496.937
32293 2 497.009 487.69 498.663
26418 2 489.244 490.582 488.36
36555 2 491.195 489.122 488.492
37455 2 490.074 488.828 488.943
25129 2 499.521 495.251 499.271
30535 2 490.544 488.895 489.015
22633 2 490.947 490.081 487.854
8671 2 491.373 490.154 488.379
9113 2 491.787 490.018 487.771
14801 2 487.813 488.341 490.533
35043 2 494.101 489.528 488.307
26131 2 499.613 489.654 497.679
10294 2 493.961 488.958 488.533
32033 2 494.982 489.936 487.691
22525 2 495.56 488.102 489.131
20453 2 491.231 487.759 494.219
18139 2 496.441 489.335 489.137
38965 2 495.799 490.536 488.21
38015 2 498.047 495.579 487.789
11383 2 498.991 497.788 487.884
32720 2 492.138 499.42 488.436
987 3 487.771 494.854 496.601
9451 2 499.423 489.996 488.066
34274 2 499.356 490.49 495.902
15575 2 499.275 490.481 487.771
15297 2 493.052 488.135 488.833
660 3 491.998 491.094 499.958
5219 1 487.69 499.568 488.307
13920 2 499.735 490.203 487.756
7984 2 487.757 491.116 488.245
24401 2 493.827 487.936 488.167
5686 2 497.721 499.642 487.878
20871 2 487.856 490.141 488.352
19895 2 496.652 487.789 497.504
38270 2 489.585 489.536 488.128
35336 2 490.136 490.698 488.055
32984 2 490.59 488.666 488.151
7205 2 491.308 489.99 487.519
26153 2 491.318 490.706 487.96
24402 2 492.56 490.716 489.427
8330 2 492.196 490.754 488.945
4080 1 491.412 499.806 497.274
16266 2 493.623 490.532 488.762
23813 2 492.959 490.154 487.748
230 1 487.648 494.333 492.019
24342 2 487.77 488.061 488.886
38088 2 499.719 489.395 498.659
27186 2 493.901 490.297 487.961
35674 2 487.674 488.149 500.025
12996 2 499.787 499.165 489.294
7563 2 495.247 490.749 488.433
35621 2 499.162 490.382 489.239
7487 2 494.765 488.895 488.893
6684 2 496.245 490.238 487.963
29634 2 499.335 495.282 490.444
19980 2 497.611 489.67 488.267
28278 2 498.402 489.799 488.087
6733 2 497.987 490.047 488.352
33857 2 498.487 490.354 488.372
35649 2 499.717 491.799 495.679
29653 2 493.116 499.425 487.932
37914 2 497.448 487.909 498.028
6959 2 494.912 493.831 487.622
24024 2 488.558 490.492 488.194
35012 2 488.906 491.738 487.938
20410 2 488.631 491.304 487.663
10813 2 489.836 491.218 488.124
21463 2 490.32 491.684 487.939
26798 2 491.976 492.115 487.861
10247 2 491.767 491.036 488.225
37714 2 490.834 491.182 488.145
17308 2 492.192 491.425 488.86
38731 2 492.574 491.211 487.886
22625 2 492.326 499.654 492.873
24358 2 492.535 490.339 488.603
24149 2 499.794 487.805 489.864
851 1 490.749 499.843 495.024
8061 2 494.613 491.809 487.617
32946 2 494.314 491.272 489.207
30106 2 492.782 496.833 487.609
19605 2 494.562 487.641 487.917
9778 2 490.256 487.658 497.082
17698 2 488.33 487.851 491.692
28560 2 496.588 492.021 487.63
32896 2 496.959 490.408 488.435
25310 2 495.966 490.898 487.664
10527 2 496.316 490.979 488.122
20791 2 488.07 489.285 499.448
15301 2 497.989 490.677 487.86
9934 2 498.41 490.774 488.713
5749 2 496.349 493.699 487.841
36184 2 499.559 491.568 488.711
23663 2 498.793 490.862 487.831
38426 2 491.618 491.59 487.745
1560 1 487.609 491.596 493.02
15141 2 497.238 495.511 488.272
38431 2 493.913 492.635 487.789
38718 2 487.596 491.015 487.732
33668 2 494.823 487.849 495.212
27050 2 490.679 492.545 488.477
14417 2 489.946 491.955 487.594
25495 2 499.887 488.216 492.197
37488 2 490.857 491.717 487.782
5416 1 487.547 493.691 496.303
33779 2 496.278 487.976 492.888
35873 2 491.549 492.075 488.805
14171 2 491.798 492.279 488.361
21049 2 493.018 492.757 488.081
20245 2 492.63 491.46 488.454
25544 2 492.525 492.933 488.065
8103 2 494.08 491.092 488.329
23009 2 496.944 487.747 488.398
36621 2 494.99 492.008 488.047
31546 2 495.664 491.54 487.573
10948 2 495.166 492.027 489.038
11857 2 495.924 492.857 488.117
35266 2 498.156 492.528 488.019
24513 2 494.317 494.273 487.713
28936 2 492.875 498.93 497.862
23193 2 498.336 491.512 487.984
19760 2 499.078 491.52 487.59
23651 2 498.886 491.397 488.184
7437 2 497.05 499.654 488.964
34906 2 490.853 490.643 487.67
224 1 487.583 495.8 494.385
13325 2 490.669 493.235 488.699
1783 1 492.295 487.705 497.437
11336 2 492.003 493.428 488.081
25994 2 492.691 492.418 488.719
29724 2 499.892 488.952 487.574
29612 2 493.38 493.494 488.364
34517 2 493.098 491.702 488.173
34951 2 494.168 491.991 487.816
18964 2 493.772 491.894 488.266
19242 2 494.707 493.064 488.356
17607 2 499.867 488.832 498.809
31432 2 494.969 493.486 488.337
31457 2 494.298 495.943 487.783
26427 2 494.511 493.719 487.947
36988 2 499.631 491.056 488.9
15889 2 495.44 491.948 487.786
21700 2 495.25 493.017 488.117
36707 2 496.762 492.158 488.662
29748 2 497.608 492.875 487.932
9716 2 499.2 487.635 489.984
29041 2 499.095 493.926 488.829
14403 2 498.981 492.729 488.61
24718 2 498.834 492.41 488.235
14104 2 498.138 494.248 499.235
20948 2 499.124 493.242 487.863
23994 2 498.971 487.764 487.672
16181 2 499.791 492.482 487.774
31791 2 498.488 492.097 487.708
25757 2 499.975 490.347 489.293
4937 1 489.193 493.065 487.811
8794 2 490.796 492.524 487.928
12044 2 490.429 493.112 487.979
31310 2 491.675 493.759 488.105
21812 2 491.432 493.258 488.342
988 3 488.19 494.178 498.108
30703 2 492.862 492.808 489.373
11748 2 492.518 493.511 488.56
18043 2 491.85 493.605 488.552
28269 2 494.09 493.585 488.182
16226 2 495.409 493.746 488.424
32597 2 493.423 492.275 487.616
25906 2 495.811 493.644 488.015
22445 2 492.425 498.624 499.989
34512 2 498.214 488.254 498.992
25438 2 496.262 493.341 488.441
31999 2 496.809 487.987 499.062
13641 2 496.056 494.131 487.931
20106 2 496.785 491.574 488.85
5851 2 492.242 497.223 488.027
15369 2 497.569 492.377 487.801
8933 2 487.847 487.853 488.375
16731 2 499.504 494.732 488.497
29563 2 491.095 487.592 488.63
21579 2 499.407 492.936 488.306
1300 1 488.71 494.148 487.922
38055 2 492.4 492.584 487.735
27636 2 491.848 494.439 487.908
37610 2 494.48 494.099 488.281
11328 2 494.419 494.448 488.64
35446 2 499.113 488.026 495.021
23981 2 495.203 494.029 487.972
19638 2 499.897 490.819 490.898
23874 2 499.69 489.931 496.288
37959 2 489.434 492.402 499.664
12035 2 497.239 493.854 488.647
16834 2 498.702 499.372 488.714
36743 2 498.751 494.077 488.059
21292 2 498.401 494.47 488.964
22857 2 499.85 489.167 499.753
36426 2 495.561 487.636 496.525
1302 1 489.981 494.743 488.238
23168 2 490.781 495.394 487.81
28883 2 498.02 487.585 498.266
36557 2 493.31 494.218 488.015
33553 2 496.815 494.809 487.798
11327 2 492.231 487.602 488.608
23525 2 494.617 494.86 487.608
38792 2 497.829 487.873 493.744
11198 2 496.363 494.42 487.535
35181 2 496.593 495.308 488.438
20018 2 495.518 487.535 497.234
35539 2 500.019 493.154 487.741
26933 2 497.304 495.625 489.178
32660 2 497.093 494.948 488.342
7915 2 487.794 487.914 495.862
27244 2 498.61 494.957 487.717
12470 2 499.526 494.705 487.923
17781 2 498.891 487.616 496.81
18157 2 497.786 499.699 488.873
847 1 488.681 499.438 494.686
29569 2 491.711 489.287 487.603
9293 2 492.904 494.872 487.649
35802 2 492.493 496.515 487.872
6241 2 492.607 495.799 487.593
8581 2 492.68 494.581 488.508
27308 2 493.244 495.278 488.209
9008 2 493.453 495.121 488.639
10934 2 494.11 495.08 488.622
21612 2 493.706 495.159 488.206
7538 2 495.514 494.907 487.985
25155 2 496.862 495.879 488.798
6634 2 496.922 498.99 490.873
20800 2 498.276 496.011 488.55
1008 1 495.627 499.796 496.465
20735 2 492.009 488.145 499.143
30541 2 494.492 488.011 492.942
33195 2 496.342 487.545 498.61
18564 2 487.912 496.864 488.618
5473 1 499.808 499.668 497.938
34426 2 487.714 496.476 488.146
26408 2 490.594 496.723 487.715
27718 2 499.654 488.484 491.37
14616 2 492.784 496.585 488.713
31945 2 492.304 495.541 488.285
12728 2 494.707 495.477 488.293
33819 2 498.862 487.666 497.912
17460 2 496.771 487.544 493.786
11042 2 494.199 496.43 488.104
37202 2 488.765 487.698 488.974
21167 2 497.48 487.725 489.264
12356 2 496.706 487.71 498.142
28469 2 495.377 496.4 487.755
10642 2 497.241 497.215 488.172
26428 2 497.449 496.382 487.702
14154 2 498.955 487.767 499.945
2888 1 494.294 494.453 499.704
6866 2 499.917 496.396 487.712
29798 2 499.77 487.816 499.232
10001 2 488.056 496.842 487.757
3980 1 488.805 496.972 488.173
1362 1 490.226 497.396 488.297
3996 1 491.397 497.19 488.059
27407 2 492.488 496.264 488.331
36312 2 493.219 496.351 488.541
25448 2 492.902 496.611 488.069
26386 2 487.659 488.178 490.009
10282 2 496.305 497.018 488.427
35295 2 493.79 493.683 487.784
30748 2 496.809 498.153 487.529
25176 2 496.709 497.306 488.263
22038 2 497.714 497.161 488.226
26957 2 498.442 490.686 491.535
13648 2 496.947 488.867 487.706
37144 2 497.939 496.216 487.692
19099 2 498.329 497.14 488.034
35774 2 499.165 496.999 487.906
34464 2 498.943 496.624 488.174
18346 2 498.842 497.171 488.323
22189 2 495.499 499.823 498.102
28383 2 499.515 496.061 488.167
10660 2 491.497 499.818 491.762
21061 2 498.325 497.747 488.24
1342 1 487.792 497.83 487.629
1363 1 490.271 498.107 487.739
4081 1 491.834 499.363 497.998
490 1 491.707 487.58 492.542
1535 1 493.354 498.378 487.821
29342 2 494.06 496.641 487.586
3852 1 495.361 498.584 487.949
27418 2 497.314 498.409 487.752
24328 2 497.317 497.873 487.552
32152 2 498.216 498.182 487.766
26705 2 499.327 497.03 488.551
8087 2 491.305 491.336 488.184
18970 2 499.466 498.16 487.853
3985 1 488.331 498.728 487.666
7357 2 495.308 488.136 494.926
2965 1 490.316 499.419 491.727
36768 2 494.924 499.215 488.148
12737 2 491.75 499.593 492.829
30504 2 496.371 499.118 487.693
18738 2 499.316 490.862 490.207
32644 2 496.107 499.945 490.561
26046 2 496.28 496.391 499.507
31026 2 495.409 495.753 487.844
1760 3 487.71 495.527 488.888
8186 2 497.701 498.281 488.061
17163 2 498.254 498.738 487.635
30397 2 495.124 487.761 493.067
25203 2 492.558 488.643 487.572
25949 2 497.478 487.68 490.963
3988 1 489.963 499.365 487.693
3990 1 491.627 499.396 487.666
8711 2 489.684 490.541 487.89
16146 2 491.012 497.921 488.541
19701 2 491.614 498.494 489.022
5443 3 487.6 492.313 496.382
22375 2 494.093 498.539 487.852
10364 2 494.851 499.203 487.562
24279 2 498.807 489.784 494.013
6435 2 496.456 499.882 488.433
4934 1 487.706 493.747 487.722
31081 2 496.942 498.989 488.798
19632 2 499.818 489.525 495.26
8198 2 497.126 491.081 487.92
9808 2 494.543 488.151 487.969
15616 2 497.048 499.32 487.775
8509 2 497.454 498.882 487.67
24835 2 490.368 487.852 488.116
1371 3 487.563 498.715 488.875
14599 2 490.292 489.862 487.679
15102 2 497.706 493.457 487.95
22762 2 493.003 488.144 487.902
18000 2 491.985 499.397 489.234
19757 2 489.622 488.219 488.413
25813 2 499.258 493.495 490.216
22381 2 489.299 488.189 488.849
15240 2 487.618 493.251 489.258
32458 2 490.499 487.676 489.093
25463 2 491.31 488.271 487.478
18083 2 490.793 488.457 488.831
38223 2 491.913 487.868 488.285
3537 1 499.658 497.219 496.021
7174 2 487.662 497.422 489.759
11212 2 493.302 488.574 489.952
9587 2 487.727 487.61 492.091
28742 2 495.35 488.829 489.715
15821 2 496.893 488.187 487.912
18648 2 495.437 487.671 489.544
28557 2 497.883 491.775 488
14365 2 499.862 493.633 490.319
32933 2 492.763 499.941 491.595
22498 2 497.493 488.98 489.874
15117 2 498.033 488.098 488.32
10921 2 498.102 488.252 489.445
23590 2 499.516 489 498.317
27008 2 498.488 488.44 488.674
13650 2 499.36 488.314 488.907
12992 2 498.404 494.364 487.787
18715 2 496.702 490.073 487.952
17026 2 488.146 488.898 488.291
5800 2 487.603 496.652 487.62
30591 2 489.948 488.777 488.259
9224 2 490.288 489.375 488.096
29004 2 489.829 488.383 488.896
16614 2 490.383 488.158 489.059
15782 2 489.891 487.85 488.807
10325 2 491.805 487.994 488.777
19576 2 491.729 488.647 489.29
35320 2 492.198 488.247 487.803
18361 2 492.946 489.338 488.078
37476 2 492.149 488.417 488.51
11037 2 494.108 488.535 488.32
26849 2 493.644 488.579 489.374
18171 2 491.986 488.811 488.01
30819 2 495.336 489.385 489.336
23581 2 494.834 487.789 488.693
27875 2 495.527 489.596 490.085
6108 2 495.909 488.554 489.341
19672 2 495.769 488.097 489.905
34325 2 495.805 489.312 489.77
35717 2 495.419 487.712 488.708
29978 2 495.158 489.229 488.721
31868 2 493.327 487.726 493.699
4510 3 487.576 487.987 497.033
23416 2 497.357 489.376 488.648
21284 2 498.419 487.963 487.918
17615 2 499.178 489.413 488.084
34910 2 499.861 488.594 488.747
7340 2 497.455 488.169 491.993
21642 2 488.268 489.537 487.935
17313 2 489.358 488.981 487.94
6277 2 488.227 488.871 489.442
11644 2 489.755 490.545 488.918
21104 2 490.052 488.668 489.385
19787 2 491 489.702 488.484
15736 2 492.492 489.955 488.116
35353 2 491.187 489.752 489.551
16569 2 492.332 489.763 488.592
26069 2 491.684 489.117 488.228
23607 2 493.052 488.707 488.989
20251 2 494.277 490.048 489.877
13299 2 494.556 489.596 488.612
20611 2 497.053 489.222 490.116
20129 2 497.179 489.959 488.792
18806 2 496.097 488.29 487.938
8292 2 496.806 489.172 488.483
35588 2 498.638 488.999 488.673
32385 2 498.137 487.638 492.817
29948 2 499.912 489.126 488.646
21613 2 492.236 496.654 488.355
7189 2 497.59 488.14 499.565
8756 2 488.954 490.005 488.204
36095 2 488.102 490.478 489.306
17595 2 487.856 489.239 489.433
7948 2 487.67 490.602 488.719
24801 2 489.385 490.061 488.581
32893 2 489.645 491.027 489.358
7962 2 493.538 490.068 489.568
32216 2 491.164 490.326 489.681
8013 2 491.246 490.59 488.746
22271 2 492.076 490.252 488.432
22137 2 493.901 489.715 490.392
36505 2 493.826 489.594 488.758
9901 2 495.355 490.127 488.696
13109 2 494.425 489.73 487.742
30516 2 495.36 489.749 488.205
38161 2 495.628 489.628 488.706
33401 2 497.92 489.185 488.253
32709 2 496.274 489.328 487.883
38993 2 498.111 489.41 487.699
20035 2 499.069 490.99 489.061
11651 2 499.274 491.486 489.212
5828 2 499.19 490.677 488.69
15515 2 499.51 490.042 495.216
38291 2 490.118 487.595 487.679
19812 2 488.086 490.733 487.774
22085 2 489.245 491.608 488.324
12084 2 489.812 491.268 487.57
10906 2 488.598 492.161 488.171
34876 2 489.123 491.288 489.038
7768 2 490.651 490.917 488.614
18711 2 490.49 491.486 488.549
37365 2 490.903 490.409 488.244
32200 2 492.324 491.017 489.892
33433 2 492.034 491.605 488.094
18574 2 491.756 490.626 488.612
6538 2 492.904 491.47 489.068
15433 2 492.208 490.518 490.2
14109 2 493.353 489.91 489.089
24818 2 492.836 490.77 488.797
15770 2 493.686 490.576 489.289
14334 2 494.215 490.205 488.402
10594 2 493.645 491.368 489.094
7653 2 493.966 491.02 489.933
37896 2 494.64 490.016 488.29
8843 2 494.597 491.094 488.031
31293 2 495.552 491.204 488.662
11663 2 495.088 490.713 489.318
16446 2 495.171 491.539 487.908
37244 2 494.599 491.144 488.705
28960 2 496.509 491.127 488.945
26065 2 495.537 491.688 488.505
27802 2 496.142 491.374 488.434
38550 2 496.727 490.873 488.462
15604 2 497.765 491.091 488.829
25077 2 497.53 490.511 488.143
27271 2 497.622 491.126 488.302
8879 2 498.888 491.69 489.57
34241 2 498.713 490.394 488.922
36785 2 497.956 488.144 494.703
6712 2 488.03 492.268 489.153
16490 2 488.716 491.245 488.774
35721 2 490.11 493.028 488.568
30739 2 490.217 493.065 489.357
37223 2 491.04 491.342 488.823
20760 2 490.243 491.874 488.896
17770 2 491.171 492.813 488.611
34992 2 490.772 492.331 490.112
5846 2 492.529 491.917 488.811
17538 2 493.042 491.999 488.625
15062 2 493.252 492.483 488.555
35994 2 492.317 492.599 488.406
25228 2 493.988 491.399 488.734
21709 2 494.08 491.37 487.748
14427 2 487.742 489.547 488.972
38675 2 494.51 490.692 488.368
18770 2 495.744 492.166 489.183
17515 2 496.27 491.855 489.103
30061 2 494.728 492.172 489.235
30628 2 495.585 491.079 488.012
34019 2 497.264 491.515 488.357
25387 2 497.492 492.045 488.361
18510 2 497.12 492.044 487.85
28907 2 498.822 492.244 488.763
21460 2 497.6 489.594 488.974
28995 2 499.481 492.213 488.636
10053 2 499.5 492.076 488.054
10316 2 498.801 491.596 489.033
31463 2 499.889 491.292 487.815
4936 1 488.32 492.72 487.636
32819 2 490.806 493.805 488.383
28826 2 491.542 491.706 488.438
16396 2 492.463 487.622 491.219
19311 2 491.324 493.566 489.275
21644 2 491.9 492.848 488.727
38073 2 491.183 492.159 488.448
7186 2 491.394 492.62 489.229
10431 2 492.479 493.037 488.671
19041 2 494.352 492.359 489
10043 2 492.641 493.399 488.061
38061 2 493.993 492.422 488.654
14374 2 494.615 492.606 488.604
21968 2 494.317 492.527 488.091
29544 2 494.716 492.144 489.947
24889 2 489.331 488.131 492.291
21214 2 496.282 493.68 488.753
18569 2 496.502 492.476 489.401
35815 2 495.017 491.567 488.749
22434 2 495.41 492.436 488.949
24209 2 497.119 493.626 487.863
31242 2 497.951 493.145 488.397
9585 2 498.301 492.693 488.664
17707 2 499.28 492.145 489.197
22220 2 499.892 492.198 489.093
27707 2 498.03 494.501 488.182
30686 2 488.995 492.271 488.403
8325 2 490.332 492.577 488.065
20311 2 490.963 493.791 488.894
5597 2 491.637 494.087 488.874
30763 2 491.372 494.306 488.293
8825 2 494.638 493.422 489.108
14180 2 492.915 493.594 489.021
7779 2 494.131 493.025 488.142
7823 2 494.07 494.122 489.474
28845 2 495.782 493.956 489.128
30132 2 494.281 493.772 488.986
36857 2 495.31 493.364 489.106
36239 2 496.605 493.895 488.413
18801 2 496.769 493.406 488.21
13346 2 497.888 494.504 489.157
13037 2 498.642 493.076 488.636
27778 2 499.136 492.767 489.231
11821 2 498.628 492.591 489.162
21775 2 499.642 494.676 489.038
23067 2 499.226 493.207 488.795
9932 2 494.965 494.365 487.675
6593 2 491.807 490.575 488.019
3302 1 488.372 493.517 488.761
29559 2 490.31 493.679 488.144
30066 2 489.925 493.734 489.782
1303 1 490.848 494.759 488.675
36776 2 493.268 494.689 488.517
23372 2 492.944 493.785 488.214
13395 2 493.761 493.906 488.65
27256 2 495.247 493.913 488.916
25934 2 494.708 494.874 488.195
12742 2 496.199 493.643 489.388
34126 2 497.133 495.244 488.749
32435 2 490.903 487.558 494.788
26614 2 496.483 494.198 489.432
11425 2 498.695 495.061 489.306
24698 2 493.179 499.964 487.929
35516 2 499.914 494.935 489.565
34586 2 499.45 493.666 487.658
28282 2 499.888 494.351 489.45
9794 2 497.586 488.249 494.207
1301 1 489.401 494.083 488.632
20608 2 491.077 494.496 487.868
17682 2 495.566 487.657 494.107
18882 2 492.614 495.128 488.432
28023 2 492.858 495.812 488.854
15463 2 493.112 494.215 488.607
16960 2 493.732 494.955 489.121
34103 2 493.787 494.599 488.554
19491 2 495.6 494.232 488.363
38874 2 494.247 495.027 488.152
35340 2 494.938 495.386 488.782
5506 2 496.372 494.283 488.802
26688 2 495.637 494.108 487.648
26820 2 497.119 494.286 488.248
24744 2 496.59 493.237 489.372
21088 2 497.696 495.144 488.996
28539 2 496.805 494.46 488.712
31190 2 497.315 494.336 488.973
12127 2 498.964 492.155 487.719
8441 2 492.905 487.63 488.905
38773 2 493.003 490.795 487.761
1308 1 488.889 495.242 488.86
1310 1 489.879 496.32 488.563
9220 2 493.653 497.339 488.76
7854 2 492.772 496.767 489.253
7464 2 496.29 494.576 488.182
32297 2 496.73 495.194 488.975
30280 2 497.003 496.238 488.013
11120 2 497.872 496.363 488.78
32681 2 497.895 495.43 488.538
17955 2 498.584 495.746 487.964
29242 2 499.345 495.636 488.693
8739 2 498.67 495.551 488.616
23484 2 498.35 495.191 488.378
28168 2 489.334 495.618 488.276
3981 1 488.601 497.123 489.073
1313 1 491.713 496.207 488.871
12693 2 492.821 495.673 488.349
37302 2 492.9 497.327 488.645
3855 1 495.37 496.186 488.974
30304 2 496.198 496.418 488.223
17351 2 497.315 495.329 489.784
10929 2 498.616 496.352 488.582
33412 2 498.105 497.407 488.564
35145 2 497.254 495.293 487.722
31609 2 499.767 495.732 487.914
1361 1 489.693 497.457 489.103
24175 2 491.23 497.973 487.809
3995 1 491.936 497.77 488.591
36877 2 492.522 497.13 488.856
35159 2 493.064 497.09 489.919
3854 1 495.265 497.107 488.48
37562 2 496.573 496.685 488.133
16448 2 497.338 496.771 488.519
7268 2 497.605 497.68 488.301
13339 2 496.209 496.396 488.783
36331 2 497.803 497.913 489.031
38152 2 497.149 497.753 489.002
23979 2 499.073 497.619 488.838
12639 2 496.92 499.949 490.208
14116 2 497.605 487.707 492.71
3982 1 488.561 497.91 488.452
34648 2 492.449 498.673 488.648
11002 2 492.281 498.966 488.258
1534 1 493.038 498.136 488.697
1540 3 494.279 497.83 488.27
3853 1 495.839 497.79 488.207
34510 2 497.211 498.116 488.232
26473 2 496.874 498.643 487.993
7144 2 497.654 496.6 488.112
38067 2 499.885 497.744 488.542
24876 2 498.177 496.903 488.757
30135 2 497.99 497.603 487.937
24800 2 490.831 497.759 499.879
30716 2 489.292 499.732 488.645
5983 2 489.251 499.244 489.885
4014 3 489.659 498.92 488.504
3992 1 490.804 499.054 488.927
3991 1 490.971 498.805 488.051
10190 2 492.945 499.479 488.489
1533 1 493.785 498.707 488.763
1532 1 494.77 498.677 488.868
3851 1 495.911 499.012 488.644
5547 2 497.034 499.104 488.253
11307 2 497.829 499.025 488.682
32809 2 498.304 498.934 488.36
29726 2 497.686 498.216 488.65
38725 2 498.493 497.25 499.548
3984 1 488.662 499.117 488.404
37512 2 499.791 490.173 491.078
34767 2 500.01 491.539 494.618
15497 2 490.943 500.045 488.275
26856 2 492.849 499.301 489.166
25662 2 493.524 499.772 487.582
22395 2 493.9 499.225 488.021
20727 2 495.162 499.536 488.732
28884 2 497.873 499.462 489.277
29078 2 497.836 498.854 489.568
22750 2 498.427 499.123 489.028
10144 2 498.375 499.115 489.964
16798 2 498.005 499.385 488.303
37583 2 499.247 498.971 488.275
28179 2 498.735 499.037 488.114
15210 2 498.32 499.396 487.802
18098 2 489.557 488.418 487.783
10701 2 499.929 498.038 489.015
9193 2 497.52 499.26 488.277
2045 1 487.789 493.792 499.706
18308 2 488.26 488.058 489.217
15025 2 488.403 487.81 488.587
34793 2 488.887 488.171 489.172
11773 2 499.351 499.606 489.38
30649 2 498.968 490.018 495.513
3629 3 499.671 492.944 491.463
27262 2 488.172 490.436 493.015
4516 1 499.951 492.641 498.506
29700 2 491.112 487.748 489.882
25950 2 490.054 488.136 490.304
8133 2 492.097 487.875 489.154
35422 2 490.957 487.996 489.28
934 3 487.499 499.79 496.134
31689 2 492.583 488.069 489.07
25363 2 492.733 487.781 490.012
5035 1 499.639 495.029 496.752
11058 2 493.453 487.659 488.376
10240 2 493.055 488.849 490.959
32213 2 494.272 487.774 489.494
38189 2 494.885 487.805 490.131
1706 1 487.549 490.197 495.461
21528 2 495.383 488.475 489.364
16732 2 499.563 488.994 490.641
7990 2 495.955 487.935 490.558
8274 2 497.482 488.408 489.463
29171 2 496.935 488.482 489.461
25521 2 495.493 495.283 487.701
9313 2 487.894 497.974 496.485
1709 1 487.582 491.902 494.2
19021 2 499.258 488.03 489.36
30182 2 498.86 496.152 487.778
31226 2 493.478 489.805 487.726
24075 2 487.729 488.718 489.032
25893 2 499.174 487.49 493.902
12196 2 487.592 489.503 488.483
31518 2 489.285 487.581 489.443
36822 2 490.126 487.64 489.494
6402 2 489.274 487.648 490.295
32823 2 489.535 488.677 489.828
15838 2 490.811 488.877 490.399
29811 2 491.186 489.225 489.699
11169 2 492.437 489.205 489.164
17386 2 492.45 488.579 489.53
19725 2 492.788 488.672 490.032
25095 2 492.826 488.189 489.581
37164 2 494.751 488.772 489.68
12494 2 492.889 489.1 489.5
14960 2 495.035 489.263 489.762
14253 2 495.215 489.251 490.471
16610 2 494.677 489.166 489.3
14022 2 495.17 488.383 490.335
6966 2 495.84 488.354 488.678
11999 2 496.289 488.302 489.992
30924 2 497.475 488.809 488.873
33557 2 497.547 489.3 489.38
15457 2 496.828 488.705 490.13
16375 2 498.014 488.621 488.73
25142 2 498.728 488.559 489.103
27164 2 499.133 487.85 488.607
37997 2 499.072 488.572 489.584
34820 2 499.458 489.047 488.441
8617 2 492.029 487.549 487.547
38598 2 494.708 498.065 487.696
27261 2 488.463 487.992 489.781
16053 2 490.34 490.401 488.411
26434 2 490.293 488.48 489.963
17895 2 490.79 489.625 489.772
16173 2 490.314 490.549 488.929
8138 2 490.712 490.188 489.92
24687 2 490.13 489.434 489.108
24487 2 491.362 488.331 488.841
35892 2 491.81 490.028 489.787
32335 2 491.397 489.037 489.245
26130 2 493.618 489.026 489.055
30688 2 491.346 489.583 488.875
18176 2 493.235 489.59 489.392
16849 2 492.561 489.279 488.693
21683 2 493.011 490.831 490.328
15732 2 494.253 488.67 488.988
5567 2 494.514 489.459 490.018
24249 2 494.888 489.722 489.103
19090 2 496.002 490.742 489.843
16519 2 494.777 490.275 489.389
30312 2 495.485 490.055 490.421
5943 2 496.161 488.789 489.825
8729 2 496.837 489.84 489.259
32312 2 496.146 489.518 490.171
31637 2 497.91 490.325 489.263
28369 2 497.395 490.245 489.34
5631 2 498.237 490.438 489.932
16693 2 498.299 489.35 488.839
5715 2 499.42 488.87 488.962
33072 2 498.403 489.291 489.831
34880 2 499.443 490.024 489.118
7851 2 494.771 496.509 488.07
14628 2 499.792 489.062 489.221
17069 2 496.047 495.453 488.087
17430 2 488.162 490.768 488.531
27211 2 487.955 491.514 489.308
21844 2 490.763 490.251 488.858
17569 2 489.09 489.422 488.83
37655 2 491.775 490.548 489.695
26489 2 493.197 491.047 489.213
19474 2 493.87 490.06 488.916
28258 2 494.182 489.34 489.01
29499 2 495.159 491.538 489.799
14225 2 495.464 490.702 488.919
17192 2 494.235 490.869 489.506
21817 2 496.03 489.91 489.745
38665 2 496.105 489.018 489.086
33841 2 496.019 490.064 489.248
27023 2 496.542 489.183 489.633
16952 2 496.827 490.357 489.069
9690 2 498.572 489.696 488.566
8194 2 497.959 491.197 489.361
34850 2 498.149 488.929 489.442
22791 2 498.698 490.201 490.331
23894 2 499.314 489.921 488.658
27163 2 497.25 489.428 487.678
38127 2 498.781 489.37 489.13
25375 2 488.215 492.875 489.363
20083 2 489.718 489.233 488.838
2376 1 489.898 490.892 490.165
7117 2 490.02 490.665 489.387
25195 2 490.594 492.475 489.076
30745 2 491.219 490.222 489.109
37456 2 492.649 492.181 487.925
22123 2 491.712 491.412 489.211
22312 2 493.131 491.85 490.042
6908 2 493.339 490.454 489.848
31400 2 493.406 491.523 490.392
19710 2 494.457 491.678 490.902
25718 2 494.617 490.403 488.921
27638 2 495.184 491.125 489.541
9990 2 494.503 491.852 489.57
25776 2 495.91 490.842 489.17
6745 2 495.954 490.42 488.741
29759 2 495.838 491.623 488.889
38901 2 497.869 490.746 489.877
19536 2 497.558 491.595 489.993
37173 2 497.54 491.681 488.787
17195 2 498.792 490.666 490.061
23238 2 498.566 491.966 489.288
24672 2 499.307 490.977 488.312
9444 2 499.18 490.439 489.843
10866 2 499.893 491.854 488.519
21779 2 490.04 490.856 488.55
2377 1 490.301 491.47 489.616
28342 2 490.734 491.884 488.475
10184 2 490.66 490.698 489.893
23345 2 491.569 491.794 489.592
9139 2 491.639 491.176 488.695
33958 2 491.73 491.314 489.879
14103 2 492.057 492.021 489.524
33659 2 493.261 491.341 489.68
16790 2 493.645 492.171 489.015
22812 2 492.053 492.228 490.062
31387 2 493.443 491.757 489.441
22738 2 494.231 492.788 489.335
27471 2 496.521 491.599 489.604
11276 2 497.151 491.142 489.048
22235 2 498.031 491.429 488.404
11063 2 497.568 491.269 487.831
19495 2 499.402 490.772 489.485
33549 2 498.644 490.545 489.54
28896 2 488.36 493.295 491.098
2378 1 489.929 492.283 489.389
32131 2 490.033 493.861 490.291
8140 2 493.172 493.049 488.575
24378 2 493.943 492.188 489.652
28895 2 493.849 493.082 489.334
9563 2 493.006 492.437 489.052
9107 2 494.821 492.978 489.186
22163 2 493.012 492.172 489.609
17817 2 495.162 493.358 489.658
6065 2 497.063 493.404 489.981
24905 2 495.176 492.043 489.647
26591 2 495.983 492.742 489.27
8741 2 496.226 491.993 488.542
22987 2 497.149 493.318 489.336
38132 2 497.572 493.754 489.142
25547 2 497.495 493.089 488.706
27731 2 498.769 493.177 489.158
35880 2 497.797 492.502 488.368
11199 2 499.733 493.021 489.962
1798 1 494.633 489.578 499.722
24785 2 490.263 490.9 487.601
3304 1 488.022 493.672 489.729
16550 2 491.686 493.176 489.029
10307 2 491.781 493.762 489.286
30025 2 492.258 494.101 488.795
7266 2 494.22 493.377 488.646
10510 2 494.307 493.69 489.783
15521 2 495.299 493.809 489.402
38146 2 495.415 493.01 490.022
24926 2 496.25 492.981 489.88
30680 2 496.241 493.6 489.9
24755 2 497.032 492.555 489.469
28696 2 496.715 494.216 490.019
10271 2 496.984 493.841 489.456
6693 2 498.212 493.485 489.281
11170 2 497.998 493.386 488.808
30250 2 499.389 493.583 489.76
12130 2 498.616 493.528 489.812
3303 1 488.902 493.275 489.49
1305 1 490.582 494.399 489.728
20678 2 491.882 494.202 489.848
7595 2 492.621 494.402 489.332
31357 2 493.21 494.649 489.106
21833 2 493.997 494.252 488.944
10944 2 494.905 494.174 490.086
21038 2 496.029 493.217 488.925
3694 1 495.559 494.5 489.8
16990 2 496.237 494.013 490.984
10887 2 496.649 493.847 489.047
22094 2 497.95 494.676 489.84